ITEM: TIMESTEP
0
ITEM: NUMBER OF ATOMS
1
ITEM: BOX BOUNDS pp pp pp
0.0000000000000000e+00 2.8975000000000001e+01
0.0000000000000000e+00 2.8975000000000001e+01
0.0000000000000000e+00 2.8975000000000001e+01
ITEM: ATOMS x y z vx vy vz fx fy fz 
 +0.00000000E+00  +0.00000000E+00  +0.00000000E+00  -6.26990965E-01  +5.13626672E-01  +7.08568868E-01  -2.77555756E-17  -2.86229374E-17  -2.81892565E-17 
ITEM: TIMESTEP
1
ITEM: NUMBER OF ATOMS
1
ITEM: BOX BOUNDS pp pp pp
0.0000000000000000e+00 2.8975000000000001e+01
0.0000000000000000e+00 2.8975000000000001e+01
0.0000000000000000e+00 2.8975000000000001e+01
ITEM: ATOMS x y z vx vy vz fx fy fz 
 -6.26990965E-04  +5.13626672E-04  +7.08568868E-04  -6.26987392E-01  +5.13619814E-01  +7.08563736E-01  +2.95813088E-05  -5.67946970E-05  -4.24961224E-05 
ITEM: TIMESTEP
2
ITEM: NUMBER OF ATOMS
1
ITEM: BOX BOUNDS pp pp pp
0.0000000000000000e+00 2.8975000000000001e+01
0.0000000000000000e+00 2.8975000000000001e+01
0.0000000000000000e+00 2.8975000000000001e+01
ITEM: ATOMS x y z vx vy vz fx fy fz 
 -1.25397478E-03  +1.02723963E-03  +1.41712747E-03  -6.26976667E-01  +5.13599199E-01  +7.08548319E-01  +5.92372331E-05  -1.13919694E-04  -8.51722629E-05 
ITEM: TIMESTEP
3
ITEM: NUMBER OF ATOMS
1
ITEM: BOX BOUNDS pp pp pp
0.0000000000000000e+00 2.8975000000000001e+01
0.0000000000000000e+00 2.8975000000000001e+01
0.0000000000000000e+00 2.8975000000000001e+01
ITEM: ATOMS x y z vx vy vz fx fy fz 
 -1.88094430E-03  +1.54082507E-03  +2.12566551E-03  -6.26958770E-01  +5.13564747E-01  +7.08522574E-01  +8.89677201E-05  -1.71374921E-04  -1.28028807E-04 
ITEM: TIMESTEP
4
ITEM: NUMBER OF ATOMS
1
ITEM: BOX BOUNDS pp pp pp
0.0000000000000000e+00 2.8975000000000001e+01
0.0000000000000000e+00 2.8975000000000001e+01
0.0000000000000000e+00 2.8975000000000001e+01
ITEM: ATOMS x y z vx vy vz fx fy fz 
 -2.50789232E-03  +2.05436912E-03  +2.83417262E-03  -6.26933684E-01  +5.13516379E-01  +7.08486456E-01  +1.18772709E-04  -2.29160281E-04  -1.71066124E-04 
ITEM: TIMESTEP
5
ITEM: NUMBER OF ATOMS
1
ITEM: BOX BOUNDS pp pp pp
0.0000000000000000e+00 2.8975000000000001e+01
0.0000000000000000e+00 2.8975000000000001e+01
0.0000000000000000e+00 2.8975000000000001e+01
ITEM: ATOMS x y z vx vy vz fx fy fz 
 -3.13481167E-03  +2.56785783E-03  +3.54263842E-03  -6.26901390E-01  +5.13454016E-01  +7.08439922E-01  +1.48652130E-04  -2.87275652E-04  -2.14284569E-04 
